12
	Energy:      16.2269668
C         -6.59171        3.55303        0.00000
C         -6.71096        2.16331       -0.00000
C         -5.32855        4.14461       -0.00000
C         -4.18464        3.34648       -0.00000
C         -4.30390        1.95676       -0.00000
C         -5.56706        1.36518       -0.00000
H         -7.48294        4.17487        0.00000
H         -7.69511        1.70240        0.00000
H         -5.23563        5.22736       -0.00000
H         -3.20050        3.80739       -0.00000
H         -3.41267        1.33492       -0.00000
H         -5.65997        0.28242       -0.00000
